# vtk DataFile Version 1.0
Elasticity 
ASCII

DATASET UNSTRUCTURED_GRID
POINTS   99 float
  -4.5000000E+00   -4.5000000E+00    0.0000000E+00
  -1.5000000E+00   -4.5000000E+00    0.0000000E+00
   1.5000000E+00   -4.5000000E+00    0.0000000E+00
   4.5000000E+00   -4.5000000E+00    0.0000000E+00
  -4.5000000E+00   -1.5000000E+00    0.0000000E+00
  -1.5000000E+00   -1.5000000E+00    0.0000000E+00
   1.5000000E+00   -1.5000000E+00    0.0000000E+00
   4.5000000E+00   -1.5000000E+00    0.0000000E+00
  -4.5000000E+00    1.5000000E+00    0.0000000E+00
  -1.5000000E+00    1.5000000E+00    0.0000000E+00
   1.5000000E+00    1.5000000E+00    0.0000000E+00
   4.5000000E+00    1.5000000E+00    0.0000000E+00
  -4.5000000E+00    4.5000000E+00    0.0000000E+00
  -1.5000000E+00    4.5000000E+00    0.0000000E+00
   1.5000000E+00    4.5000000E+00    0.0000000E+00
   4.5000000E+00    4.5000000E+00    0.0000000E+00
  -1.5000000E+00   -4.5000000E+00    0.0000000E+00
   1.5000000E+00   -4.5000000E+00    0.0000000E+00
  -4.5000000E+00   -1.5000000E+00    0.0000000E+00
  -1.5000000E+00   -1.5000000E+00    0.0000000E+00
  -1.5000000E+00   -1.5000000E+00    0.0000000E+00
  -1.5000000E+00   -1.5000000E+00    0.0000000E+00
   1.5000000E+00   -1.5000000E+00    0.0000000E+00
   1.5000000E+00   -1.5000000E+00    0.0000000E+00
   1.5000000E+00   -1.5000000E+00    0.0000000E+00
   4.5000000E+00   -1.5000000E+00    0.0000000E+00
  -4.5000000E+00    1.5000000E+00    0.0000000E+00
  -1.5000000E+00    1.5000000E+00    0.0000000E+00
  -1.5000000E+00    1.5000000E+00    0.0000000E+00
  -1.5000000E+00    1.5000000E+00    0.0000000E+00
   1.5000000E+00    1.5000000E+00    0.0000000E+00
   1.5000000E+00    1.5000000E+00    0.0000000E+00
   1.5000000E+00    1.5000000E+00    0.0000000E+00
   4.5000000E+00    1.5000000E+00    0.0000000E+00
  -1.5000000E+00    4.5000000E+00    0.0000000E+00
   1.5000000E+00    4.5000000E+00    0.0000000E+00
  -3.0000000E+00   -3.0000000E+00    0.0000000E+00
   0.0000000E+00    0.0000000E+00    0.0000000E+00
   0.0000000E+00    0.0000000E+00    0.0000000E+00
  -4.1941759E-16   -3.0000000E+00    0.0000000E+00
   0.0000000E+00    0.0000000E+00    0.0000000E+00
   0.0000000E+00    0.0000000E+00    0.0000000E+00
   3.0000000E+00   -3.0000000E+00    0.0000000E+00
   0.0000000E+00    0.0000000E+00    0.0000000E+00
   0.0000000E+00    0.0000000E+00    0.0000000E+00
  -3.0000000E+00   -3.2073110E-16    0.0000000E+00
   0.0000000E+00    0.0000000E+00    0.0000000E+00
   0.0000000E+00    0.0000000E+00    0.0000000E+00
  -2.9605947E-16   -3.9474596E-16    0.0000000E+00
   0.0000000E+00    0.0000000E+00    0.0000000E+00
   0.0000000E+00    0.0000000E+00    0.0000000E+00
   3.0000000E+00   -3.4540272E-16    0.0000000E+00
   0.0000000E+00    0.0000000E+00    0.0000000E+00
   0.0000000E+00    0.0000000E+00    0.0000000E+00
  -3.0000000E+00    3.0000000E+00    0.0000000E+00
   0.0000000E+00    0.0000000E+00    0.0000000E+00
   0.0000000E+00    0.0000000E+00    0.0000000E+00
  -2.9605947E-16    3.0000000E+00    0.0000000E+00
   0.0000000E+00    0.0000000E+00    0.0000000E+00
   0.0000000E+00    0.0000000E+00    0.0000000E+00
   3.0000000E+00    3.0000000E+00    0.0000000E+00
   0.0000000E+00    0.0000000E+00    0.0000000E+00
   0.0000000E+00    0.0000000E+00    0.0000000E+00
  -3.0000000E+00   -4.5000000E+00    0.0000000E+00
   0.0000000E+00    0.0000000E+00    0.0000000E+00
   0.0000000E+00    0.0000000E+00    0.0000000E+00
  -4.5000000E+00   -3.0000000E+00    0.0000000E+00
   0.0000000E+00    0.0000000E+00    0.0000000E+00
   0.0000000E+00    0.0000000E+00    0.0000000E+00
  -4.4408921E-16   -4.5000000E+00    0.0000000E+00
   0.0000000E+00    0.0000000E+00    0.0000000E+00
   0.0000000E+00    0.0000000E+00    0.0000000E+00
   3.0000000E+00   -4.5000000E+00    0.0000000E+00
   0.0000000E+00    0.0000000E+00    0.0000000E+00
   0.0000000E+00    0.0000000E+00    0.0000000E+00
   4.5000000E+00   -3.0000000E+00    0.0000000E+00
   0.0000000E+00    0.0000000E+00    0.0000000E+00
   0.0000000E+00    0.0000000E+00    0.0000000E+00
  -4.5000000E+00   -6.2912638E-16    0.0000000E+00
   0.0000000E+00    0.0000000E+00    0.0000000E+00
   0.0000000E+00    0.0000000E+00    0.0000000E+00
   4.5000000E+00   -6.2912638E-16    0.0000000E+00
   0.0000000E+00    0.0000000E+00    0.0000000E+00
   0.0000000E+00    0.0000000E+00    0.0000000E+00
  -3.0000000E+00    4.5000000E+00    0.0000000E+00
   0.0000000E+00    0.0000000E+00    0.0000000E+00
   0.0000000E+00    0.0000000E+00    0.0000000E+00
  -4.5000000E+00    3.0000000E+00    0.0000000E+00
   0.0000000E+00    0.0000000E+00    0.0000000E+00
   0.0000000E+00    0.0000000E+00    0.0000000E+00
  -3.3306691E-16    4.5000000E+00    0.0000000E+00
   0.0000000E+00    0.0000000E+00    0.0000000E+00
   0.0000000E+00    0.0000000E+00    0.0000000E+00
   4.5000000E+00    3.0000000E+00    0.0000000E+00
   0.0000000E+00    0.0000000E+00    0.0000000E+00
   0.0000000E+00    0.0000000E+00    0.0000000E+00
   3.0000000E+00    4.5000000E+00    0.0000000E+00
   0.0000000E+00    0.0000000E+00    0.0000000E+00
   0.0000000E+00    0.0000000E+00    0.0000000E+00

CELLS 24 72
 2 19 16
 2 22 17
 2 18 20
 2 21 23
 2 27 21
 2 24 25
 2 30 24
 2 26 28
 2 29 31
 2 34 29
 2 32 33
 2 35 32
 2 0 1
 2 4 0
 2 16 2
 2 17 3
 2 3 7
 2 8 18
 2 25 11
 2 13 12
 2 12 26
 2 14 34
 2 33 15
 2 15 35

CELL_TYPES 24
3
3
3
3
3
3
3
3
3
3
3
3
3
3
3
3
3
3
3
3
3
3
3
3

CELL_DATA   24

SCALARS IRegion float
LOOKUP_TABLE default
   1.0000000E+01
   1.1000000E+01
   1.2000000E+01
   1.3000000E+01
   1.4000000E+01
   1.5000000E+01
   1.6000000E+01
   1.7000000E+01
   1.8000000E+01
   1.9000000E+01
   2.0000000E+01
   2.1000000E+01
   2.2000000E+01
   2.3000000E+01
   2.4000000E+01
   2.5000000E+01
   2.6000000E+01
   2.7000000E+01
   2.8000000E+01
   2.9000000E+01
   3.0000000E+01
   3.1000000E+01
   3.2000000E+01
   3.3000000E+01

FIELD CoupEData 10
tvtr 2 24 float 
  -8.0769231E+00    5.1430214E-15
  -8.0769231E+00   -4.5146178E-15
  -3.0014880E-15   -2.2094926E-01
  -7.5082055E-16   -2.2094926E-01
  -8.0769231E+00   -4.2097402E-15
   1.3479684E-15   -2.2094926E-01
  -8.0769231E+00   -3.2664843E-15
   1.9159003E-15   -2.2094926E-01
  -1.5898798E-15   -2.2094926E-01
  -8.0769231E+00    5.1694760E-16
  -1.7497341E-15   -2.2094926E-01
  -8.0769231E+00    5.2203612E-15
  -5.7361523E-16    3.5631220E-15
   6.0000000E+00    6.7761190E-15
  -1.9590810E-15    6.5934066E-01
  -1.4953316E-15    6.2901073E-15
  -6.0000000E+00    1.1331214E-14
   1.2197802E+01    3.0415485E-15
  -1.2197802E+01    8.5868812E-16
   5.3498872E-15   -1.5433257E-15
   6.0000000E+00   -7.7102676E-15
   4.1656493E-15   -6.5934066E-01
  -6.0000000E+00   -6.2786871E-15
  -2.9837244E-16   -2.7148422E-15
jumpu 2 24 float 
  -9.3675068E-17   -5.4932910E-17
  -1.4860798E-16    7.2858386E-17
   2.1394923E-16    1.0408341E-17
   1.3299547E-17   -2.2985086E-17
   6.2450045E-17    5.7824116E-18
  -3.2728450E-16    2.1539483E-17
   1.1333527E-16   -1.8792838E-18
  -1.9660199E-16   -2.0816682E-17
  -2.6020852E-17   -1.6046192E-17
  -6.9967180E-17    1.1853944E-17
   2.4401777E-16    2.0093880E-17
  -1.5323391E-16   -4.1633363E-17
   0.0000000E+00    0.0000000E+00
   0.0000000E+00    0.0000000E+00
   0.0000000E+00    0.0000000E+00
   6.9388939E-18    4.6259293E-18
   0.0000000E+00   -1.7347235E-18
   0.0000000E+00    0.0000000E+00
   0.0000000E+00    0.0000000E+00
   0.0000000E+00    0.0000000E+00
   0.0000000E+00    0.0000000E+00
   0.0000000E+00    0.0000000E+00
  -1.1564823E-17   -1.7347235E-18
  -6.9388939E-18   -2.8912058E-18
jumpsig 2 24 float 
   6.1978022E+00   -1.0211739E-15
  -6.1978022E+00    2.4780525E-15
   3.0311402E-15    6.5934066E-01
   4.7486816E-15   -6.5934066E-01
  -6.1978022E+00   -2.7162878E-15
   7.9741108E-15    6.5934066E-01
   6.1978022E+00    1.4560112E-15
  -7.1196356E-15   -6.5934066E-01
  -5.4158067E-15    6.5934066E-01
   6.1978022E+00   -6.5081042E-16
  -1.1472305E-15   -6.5934066E-01
  -6.1978022E+00    5.8113236E-16
   0.0000000E+00    0.0000000E+00
   0.0000000E+00    0.0000000E+00
   0.0000000E+00    0.0000000E+00
  -4.2095956E-16    2.0816682E-17
  -3.7007434E-16    1.1564823E-17
   0.0000000E+00    0.0000000E+00
   0.0000000E+00    0.0000000E+00
   0.0000000E+00    0.0000000E+00
   0.0000000E+00    0.0000000E+00
   5.0885222E-17   -3.8395213E-16
  -2.5905204E-16    3.1514143E-17
  -3.1918912E-16   -1.7231587E-16
tracAve 2 24 float 
  -4.3371522E+02    6.8630945E-15
  -4.3371522E+02   -9.7531192E-15
   6.2132427E-15   -1.1947627E+02
   2.9905481E-14   -1.1947627E+02
  -4.3371522E+02    7.0863835E-15
  -8.9232398E-14   -1.1947627E+02
  -4.3371522E+02    1.1253257E-14
   2.4737087E-14   -1.1947627E+02
   2.5803977E-15   -1.1947627E+02
  -4.3371522E+02   -6.7932522E-15
  -7.1758164E-16   -1.1947627E+02
  -4.3371522E+02    2.3603768E-14
   0.0000000E+00    8.0000000E+01
   3.2000000E+02    0.0000000E+00
   0.0000000E+00    1.9780220E+02
   0.0000000E+00    8.0000000E+01
  -3.2000000E+02    2.3684758E-14
   6.5934066E+02    0.0000000E+00
  -6.5934066E+02    0.0000000E+00
   9.4739031E-14   -8.0000000E+01
   3.2000000E+02   -3.2503991E-30
   0.0000000E+00   -1.9780220E+02
  -3.2000000E+02    0.0000000E+00
   0.0000000E+00   -8.0000000E+01
tracJump 2 24 float 
  -3.3934066E+02    0.0000000E+00
   3.3934066E+02   -8.7191142E-15
   0.0000000E+00   -1.1780220E+02
  -2.5116254E-14    1.1780220E+02
   3.3934066E+02   -8.7191142E-15
  -7.5348763E-14   -1.1780220E+02
  -3.3934066E+02    0.0000000E+00
  -2.5116254E-14    1.1780220E+02
   0.0000000E+00   -1.1780220E+02
  -3.3934066E+02   -1.7438228E-14
   0.0000000E+00    1.1780220E+02
   3.3934066E+02   -8.7191142E-15
   0.0000000E+00    0.0000000E+00
   0.0000000E+00    0.0000000E+00
   0.0000000E+00    0.0000000E+00
   0.0000000E+00    0.0000000E+00
   0.0000000E+00    0.0000000E+00
   0.0000000E+00    0.0000000E+00
   0.0000000E+00    0.0000000E+00
   0.0000000E+00    0.0000000E+00
   0.0000000E+00    0.0000000E+00
   0.0000000E+00    0.0000000E+00
   0.0000000E+00    0.0000000E+00
   0.0000000E+00    0.0000000E+00
straiAve 2 24 float 
   5.9840426E+00    1.8202314E-16
  -5.9840426E+00   -1.7451440E-16
   4.7468710E-16    5.9840426E+00
   1.5458951E-16    3.0159574E+00
   3.0159574E+00    4.5001774E-17
  -1.4976522E-15    5.9840426E+00
  -3.0159574E+00    2.9845912E-16
  -1.1668286E-16   -5.9840426E+00
   1.9714046E-16   -3.0159574E+00
   5.9840426E+00   -1.0465444E-15
   5.4822702E-17   -5.9840426E+00
  -5.9840426E+00    2.7306117E-16
   0.0000000E+00   -9.0000000E+00
  -9.0000000E+00    0.0000000E+00
   0.0000000E+00   -9.0000000E+00
   0.0000000E+00   -9.0000000E+00
  -9.0000000E+00   -2.6645353E-15
  -9.0000000E+00    0.0000000E+00
  -9.0000000E+00    0.0000000E+00
  -2.6645353E-15   -9.0000000E+00
  -9.0000000E+00    9.1417475E-32
   0.0000000E+00   -9.0000000E+00
  -9.0000000E+00    0.0000000E+00
   0.0000000E+00   -9.0000000E+00
straiJump 2 24 float 
  -9.0000000E+00    0.0000000E+00
  -9.0000000E+00    0.0000000E+00
   0.0000000E+00   -9.0000000E+00
   2.7391004E-32   -9.0000000E+00
  -9.0000000E+00   -1.6434602E-32
  -5.9164568E-31   -9.0000000E+00
  -9.0000000E+00    0.0000000E+00
  -1.4791142E-31   -9.0000000E+00
   0.0000000E+00   -9.0000000E+00
  -9.0000000E+00    1.4791142E-31
   0.0000000E+00   -9.0000000E+00
  -9.0000000E+00    2.2186713E-31
   0.0000000E+00    0.0000000E+00
   0.0000000E+00    0.0000000E+00
   0.0000000E+00    0.0000000E+00
   0.0000000E+00    0.0000000E+00
   0.0000000E+00    0.0000000E+00
   0.0000000E+00    0.0000000E+00
   0.0000000E+00    0.0000000E+00
   0.0000000E+00    0.0000000E+00
   0.0000000E+00    0.0000000E+00
   0.0000000E+00    0.0000000E+00
   0.0000000E+00    0.0000000E+00
   0.0000000E+00    0.0000000E+00
jumpi 2 24 float 
   0.0000000E+00    0.0000000E+00
   0.0000000E+00    0.0000000E+00
   0.0000000E+00    0.0000000E+00
   0.0000000E+00    0.0000000E+00
   0.0000000E+00    0.0000000E+00
   0.0000000E+00    0.0000000E+00
   0.0000000E+00    0.0000000E+00
   0.0000000E+00    0.0000000E+00
   0.0000000E+00    0.0000000E+00
   0.0000000E+00    0.0000000E+00
   0.0000000E+00    0.0000000E+00
   0.0000000E+00    0.0000000E+00
   0.0000000E+00    0.0000000E+00
   0.0000000E+00    0.0000000E+00
   0.0000000E+00    0.0000000E+00
   0.0000000E+00    0.0000000E+00
   0.0000000E+00    0.0000000E+00
   0.0000000E+00    0.0000000E+00
   0.0000000E+00    0.0000000E+00
   0.0000000E+00    0.0000000E+00
   0.0000000E+00    0.0000000E+00
   0.0000000E+00    0.0000000E+00
   0.0000000E+00    0.0000000E+00
   0.0000000E+00    0.0000000E+00
fluxj 2 24 float 
   6.1978022E+00    0.0000000E+00
  -6.1978022E+00    4.8801012E-17
   0.0000000E+00    6.5934066E-01
   4.5872951E-16   -6.5934066E-01
  -6.1978022E+00    4.8801012E-17
   1.3761885E-15    6.5934066E-01
   6.1978022E+00    0.0000000E+00
   4.5872951E-16   -6.5934066E-01
   0.0000000E+00    6.5934066E-01
   6.1978022E+00    9.7602024E-17
   0.0000000E+00   -6.5934066E-01
  -6.1978022E+00    4.8801012E-17
   0.0000000E+00    0.0000000E+00
   0.0000000E+00    0.0000000E+00
   0.0000000E+00    0.0000000E+00
   0.0000000E+00    0.0000000E+00
   0.0000000E+00    0.0000000E+00
   0.0000000E+00    0.0000000E+00
   0.0000000E+00    0.0000000E+00
   0.0000000E+00    0.0000000E+00
   0.0000000E+00    0.0000000E+00
   0.0000000E+00    0.0000000E+00
   0.0000000E+00    0.0000000E+00
   0.0000000E+00    0.0000000E+00
nvec 2 24 float 
  -1.0000000E+00    0.0000000E+00
  -1.0000000E+00    7.4014868E-17
   0.0000000E+00   -1.0000000E+00
   7.4014868E-17   -1.0000000E+00
  -1.0000000E+00    7.4014868E-17
  -2.2204460E-16   -1.0000000E+00
  -1.0000000E+00    0.0000000E+00
   7.4014868E-17   -1.0000000E+00
   0.0000000E+00   -1.0000000E+00
  -1.0000000E+00   -1.4802974E-16
   0.0000000E+00   -1.0000000E+00
  -1.0000000E+00    7.4014868E-17
   0.0000000E+00   -1.0000000E+00
  -1.0000000E+00    0.0000000E+00
   0.0000000E+00   -1.0000000E+00
   0.0000000E+00   -1.0000000E+00
   1.0000000E+00   -2.9605947E-16
  -1.0000000E+00    0.0000000E+00
   1.0000000E+00    0.0000000E+00
  -2.9605947E-16    1.0000000E+00
  -1.0000000E+00    0.0000000E+00
   0.0000000E+00    1.0000000E+00
   1.0000000E+00    0.0000000E+00
   0.0000000E+00    1.0000000E+00
