# vtk DataFile Version 1.0
Elasticity 
ASCII

DATASET UNSTRUCTURED_GRID
POINTS   99 float
  -4.5000000E+00   -4.5000000E+00    0.0000000E+00
  -1.5000000E+00   -4.5000000E+00    0.0000000E+00
   1.5000000E+00   -4.5000000E+00    0.0000000E+00
   4.5000000E+00   -4.5000000E+00    0.0000000E+00
  -4.5000000E+00   -1.5000000E+00    0.0000000E+00
  -1.5000000E+00   -1.5000000E+00    0.0000000E+00
   1.5000000E+00   -1.5000000E+00    0.0000000E+00
   4.5000000E+00   -1.5000000E+00    0.0000000E+00
  -4.5000000E+00    1.5000000E+00    0.0000000E+00
  -1.5000000E+00    1.5000000E+00    0.0000000E+00
   1.5000000E+00    1.5000000E+00    0.0000000E+00
   4.5000000E+00    1.5000000E+00    0.0000000E+00
  -4.5000000E+00    4.5000000E+00    0.0000000E+00
  -1.5000000E+00    4.5000000E+00    0.0000000E+00
   1.5000000E+00    4.5000000E+00    0.0000000E+00
   4.5000000E+00    4.5000000E+00    0.0000000E+00
  -1.5000000E+00   -4.5000000E+00    0.0000000E+00
   1.5000000E+00   -4.5000000E+00    0.0000000E+00
  -4.5000000E+00   -1.5000000E+00    0.0000000E+00
  -1.5000000E+00   -1.5000000E+00    0.0000000E+00
  -1.5000000E+00   -1.5000000E+00    0.0000000E+00
  -1.5000000E+00   -1.5000000E+00    0.0000000E+00
   1.5000000E+00   -1.5000000E+00    0.0000000E+00
   1.5000000E+00   -1.5000000E+00    0.0000000E+00
   1.5000000E+00   -1.5000000E+00    0.0000000E+00
   4.5000000E+00   -1.5000000E+00    0.0000000E+00
  -4.5000000E+00    1.5000000E+00    0.0000000E+00
  -1.5000000E+00    1.5000000E+00    0.0000000E+00
  -1.5000000E+00    1.5000000E+00    0.0000000E+00
  -1.5000000E+00    1.5000000E+00    0.0000000E+00
   1.5000000E+00    1.5000000E+00    0.0000000E+00
   1.5000000E+00    1.5000000E+00    0.0000000E+00
   1.5000000E+00    1.5000000E+00    0.0000000E+00
   4.5000000E+00    1.5000000E+00    0.0000000E+00
  -1.5000000E+00    4.5000000E+00    0.0000000E+00
   1.5000000E+00    4.5000000E+00    0.0000000E+00
  -3.0000000E+00   -3.0000000E+00    0.0000000E+00
   0.0000000E+00    0.0000000E+00    0.0000000E+00
   0.0000000E+00    0.0000000E+00    0.0000000E+00
  -4.1941759E-16   -3.0000000E+00    0.0000000E+00
   0.0000000E+00    0.0000000E+00    0.0000000E+00
   0.0000000E+00    0.0000000E+00    0.0000000E+00
   3.0000000E+00   -3.0000000E+00    0.0000000E+00
   0.0000000E+00    0.0000000E+00    0.0000000E+00
   0.0000000E+00    0.0000000E+00    0.0000000E+00
  -3.0000000E+00   -3.2073110E-16    0.0000000E+00
   0.0000000E+00    0.0000000E+00    0.0000000E+00
   0.0000000E+00    0.0000000E+00    0.0000000E+00
  -2.9605947E-16   -3.9474596E-16    0.0000000E+00
   0.0000000E+00    0.0000000E+00    0.0000000E+00
   0.0000000E+00    0.0000000E+00    0.0000000E+00
   3.0000000E+00   -3.4540272E-16    0.0000000E+00
   0.0000000E+00    0.0000000E+00    0.0000000E+00
   0.0000000E+00    0.0000000E+00    0.0000000E+00
  -3.0000000E+00    3.0000000E+00    0.0000000E+00
   0.0000000E+00    0.0000000E+00    0.0000000E+00
   0.0000000E+00    0.0000000E+00    0.0000000E+00
  -2.9605947E-16    3.0000000E+00    0.0000000E+00
   0.0000000E+00    0.0000000E+00    0.0000000E+00
   0.0000000E+00    0.0000000E+00    0.0000000E+00
   3.0000000E+00    3.0000000E+00    0.0000000E+00
   0.0000000E+00    0.0000000E+00    0.0000000E+00
   0.0000000E+00    0.0000000E+00    0.0000000E+00
  -3.0000000E+00   -4.5000000E+00    0.0000000E+00
   0.0000000E+00    0.0000000E+00    0.0000000E+00
   0.0000000E+00    0.0000000E+00    0.0000000E+00
  -4.5000000E+00   -3.0000000E+00    0.0000000E+00
   0.0000000E+00    0.0000000E+00    0.0000000E+00
   0.0000000E+00    0.0000000E+00    0.0000000E+00
  -4.4408921E-16   -4.5000000E+00    0.0000000E+00
   0.0000000E+00    0.0000000E+00    0.0000000E+00
   0.0000000E+00    0.0000000E+00    0.0000000E+00
   3.0000000E+00   -4.5000000E+00    0.0000000E+00
   0.0000000E+00    0.0000000E+00    0.0000000E+00
   0.0000000E+00    0.0000000E+00    0.0000000E+00
   4.5000000E+00   -3.0000000E+00    0.0000000E+00
   0.0000000E+00    0.0000000E+00    0.0000000E+00
   0.0000000E+00    0.0000000E+00    0.0000000E+00
  -4.5000000E+00   -6.2912638E-16    0.0000000E+00
   0.0000000E+00    0.0000000E+00    0.0000000E+00
   0.0000000E+00    0.0000000E+00    0.0000000E+00
   4.5000000E+00   -6.2912638E-16    0.0000000E+00
   0.0000000E+00    0.0000000E+00    0.0000000E+00
   0.0000000E+00    0.0000000E+00    0.0000000E+00
  -3.0000000E+00    4.5000000E+00    0.0000000E+00
   0.0000000E+00    0.0000000E+00    0.0000000E+00
   0.0000000E+00    0.0000000E+00    0.0000000E+00
  -4.5000000E+00    3.0000000E+00    0.0000000E+00
   0.0000000E+00    0.0000000E+00    0.0000000E+00
   0.0000000E+00    0.0000000E+00    0.0000000E+00
  -3.3306691E-16    4.5000000E+00    0.0000000E+00
   0.0000000E+00    0.0000000E+00    0.0000000E+00
   0.0000000E+00    0.0000000E+00    0.0000000E+00
   4.5000000E+00    3.0000000E+00    0.0000000E+00
   0.0000000E+00    0.0000000E+00    0.0000000E+00
   0.0000000E+00    0.0000000E+00    0.0000000E+00
   3.0000000E+00    4.5000000E+00    0.0000000E+00
   0.0000000E+00    0.0000000E+00    0.0000000E+00
   0.0000000E+00    0.0000000E+00    0.0000000E+00

CELLS 24 72
 2 19 16
 2 22 17
 2 18 20
 2 21 23
 2 27 21
 2 24 25
 2 30 24
 2 26 28
 2 29 31
 2 34 29
 2 32 33
 2 35 32
 2 0 1
 2 4 0
 2 16 2
 2 17 3
 2 3 7
 2 8 18
 2 25 11
 2 13 12
 2 12 26
 2 14 34
 2 33 15
 2 15 35

CELL_TYPES 24
3
3
3
3
3
3
3
3
3
3
3
3
3
3
3
3
3
3
3
3
3
3
3
3

CELL_DATA   24

SCALARS IRegion float
LOOKUP_TABLE default
   1.0000000E+01
   1.1000000E+01
   1.2000000E+01
   1.3000000E+01
   1.4000000E+01
   1.5000000E+01
   1.6000000E+01
   1.7000000E+01
   1.8000000E+01
   1.9000000E+01
   2.0000000E+01
   2.1000000E+01
   2.2000000E+01
   2.3000000E+01
   2.4000000E+01
   2.5000000E+01
   2.6000000E+01
   2.7000000E+01
   2.8000000E+01
   2.9000000E+01
   3.0000000E+01
   3.1000000E+01
   3.2000000E+01
   3.3000000E+01

FIELD CoupEData 10
tvtr 2 24 float 
  -7.6082520E+01   -9.2645378E+01
   2.9982049E+01   -1.0138066E+02
  -4.8854204E+00   -6.3647455E+01
  -1.5780577E+01    1.4565308E+01
   2.8872597E+01   -1.0750684E+01
   4.7101355E+01    2.4186802E+01
  -4.4349374E+01    1.0750684E+01
  -4.7432511E+01   -2.4580788E+01
   1.5780577E+01   -1.4989483E+01
  -4.6485751E+01    1.0251967E+02
   5.2165771E+00    6.3253469E+01
   5.9578818E+01    9.1506373E+01
  -1.7863838E+01   -1.1048345E+02
   5.9062357E+01   -1.3584519E+02
   3.9396090E+01   -8.3664547E+01
   6.1922334E+01    1.6183285E+02
   1.0109055E+02    1.2749477E+02
  -2.4709225E+02    9.9875781E+00
  -2.6792069E+02    9.9875781E+00
   6.2255637E+01    1.6305597E+02
   1.1460536E+02    1.2863849E+02
   3.9396090E+01   -8.6867242E+01
   4.5547541E+01   -1.3470146E+02
  -1.8197141E+01   -1.0926034E+02
jumpu 2 24 float 
   4.7556243E-02    7.3135571E-01
  -3.6949977E-01    1.4196967E+00
  -1.2729163E+00   -7.8631767E-01
  -1.7934242E+00   -1.3535501E+00
  -1.7251386E+00   -5.2794012E-01
  -1.0716569E+00    4.1963034E-01
   1.7090719E+00    5.2794012E-01
   1.0922731E+00   -4.2479812E-01
   1.7934242E+00    1.3571844E+00
   3.7172011E-01   -1.4372688E+00
   1.2523000E+00    7.8114988E-01
  -4.5335902E-02   -7.1378366E-01
   0.0000000E+00    0.0000000E+00
   0.0000000E+00    0.0000000E+00
   0.0000000E+00    0.0000000E+00
   6.6613381E-16    2.2204460E-16
   0.0000000E+00    0.0000000E+00
   0.0000000E+00    0.0000000E+00
   0.0000000E+00    0.0000000E+00
   0.0000000E+00    0.0000000E+00
   0.0000000E+00    0.0000000E+00
   6.9388939E-17   -1.1102230E-16
   8.8817842E-16    3.3306691E-16
  -1.1102230E-15   -1.1102230E-16
jumpsig 2 24 float 
  -4.1077186E+01   -1.6344802E+02
  -4.8251753E+00    1.3929262E+02
  -7.1377067E+01   -4.1667210E+01
   9.6045646E+01    7.1745787E+01
   1.9920401E+02    1.0120714E+01
  -1.4581884E+01   -8.8183072E+00
   2.0752495E+02    1.0120714E+01
  -1.4245990E+01   -9.3083284E+00
   9.6045646E+01    7.2442463E+01
   5.6352696E+00    1.3897764E+02
  -7.1712962E+01   -4.2157231E+01
  -5.1537631E+01   -1.6376300E+02
   0.0000000E+00    0.0000000E+00
   0.0000000E+00    0.0000000E+00
   0.0000000E+00    0.0000000E+00
   7.1054274E-15    0.0000000E+00
   0.0000000E+00    0.0000000E+00
   0.0000000E+00    0.0000000E+00
   0.0000000E+00    0.0000000E+00
   0.0000000E+00    0.0000000E+00
   0.0000000E+00    0.0000000E+00
   2.6645353E-15   -7.1054274E-15
   8.5265128E-14    2.1316282E-14
  -4.2632564E-14   -2.4868996E-14
tracAve 2 24 float 
  -4.3371522E+02    6.8630945E-15
  -4.3371522E+02   -9.7531192E-15
   6.2132427E-15   -1.1947627E+02
   2.9905481E-14   -1.1947627E+02
  -4.3371522E+02    7.0863835E-15
  -8.9232398E-14   -1.1947627E+02
  -4.3371522E+02    1.1253257E-14
   2.4737087E-14   -1.1947627E+02
   2.5803977E-15   -1.1947627E+02
  -4.3371522E+02   -6.7932522E-15
  -7.1758164E-16   -1.1947627E+02
  -4.3371522E+02    2.3603768E-14
   0.0000000E+00    8.0000000E+01
   3.2000000E+02    0.0000000E+00
   0.0000000E+00    1.9780220E+02
   0.0000000E+00    8.0000000E+01
  -3.2000000E+02    2.3684758E-14
   6.5934066E+02    0.0000000E+00
  -6.5934066E+02    0.0000000E+00
   9.4739031E-14   -8.0000000E+01
   3.2000000E+02   -3.2503991E-30
   0.0000000E+00   -1.9780220E+02
  -3.2000000E+02    0.0000000E+00
   0.0000000E+00   -8.0000000E+01
tracJump 2 24 float 
  -3.3934066E+02    0.0000000E+00
   3.3934066E+02   -8.7191142E-15
   0.0000000E+00   -1.1780220E+02
  -2.5116254E-14    1.1780220E+02
   3.3934066E+02   -8.7191142E-15
  -7.5348763E-14   -1.1780220E+02
  -3.3934066E+02    0.0000000E+00
  -2.5116254E-14    1.1780220E+02
   0.0000000E+00   -1.1780220E+02
  -3.3934066E+02   -1.7438228E-14
   0.0000000E+00    1.1780220E+02
   3.3934066E+02   -8.7191142E-15
   0.0000000E+00    0.0000000E+00
   0.0000000E+00    0.0000000E+00
   0.0000000E+00    0.0000000E+00
   0.0000000E+00    0.0000000E+00
   0.0000000E+00    0.0000000E+00
   0.0000000E+00    0.0000000E+00
   0.0000000E+00    0.0000000E+00
   0.0000000E+00    0.0000000E+00
   0.0000000E+00    0.0000000E+00
   0.0000000E+00    0.0000000E+00
   0.0000000E+00    0.0000000E+00
   0.0000000E+00    0.0000000E+00
straiAve 2 24 float 
   5.9840426E+00    1.8202314E-16
  -5.9840426E+00   -1.7451440E-16
   4.7468710E-16    5.9840426E+00
   1.5458951E-16    3.0159574E+00
   3.0159574E+00    4.5001774E-17
  -1.4976522E-15    5.9840426E+00
  -3.0159574E+00    2.9845912E-16
  -1.1668286E-16   -5.9840426E+00
   1.9714046E-16   -3.0159574E+00
   5.9840426E+00   -1.0465444E-15
   5.4822702E-17   -5.9840426E+00
  -5.9840426E+00    2.7306117E-16
   0.0000000E+00   -9.0000000E+00
  -9.0000000E+00    0.0000000E+00
   0.0000000E+00   -9.0000000E+00
   0.0000000E+00   -9.0000000E+00
  -9.0000000E+00   -2.6645353E-15
  -9.0000000E+00    0.0000000E+00
  -9.0000000E+00    0.0000000E+00
  -2.6645353E-15   -9.0000000E+00
  -9.0000000E+00    9.1417475E-32
   0.0000000E+00   -9.0000000E+00
  -9.0000000E+00    0.0000000E+00
   0.0000000E+00   -9.0000000E+00
straiJump 2 24 float 
  -9.0000000E+00    0.0000000E+00
  -9.0000000E+00    0.0000000E+00
   0.0000000E+00   -9.0000000E+00
   2.7391004E-32   -9.0000000E+00
  -9.0000000E+00   -1.6434602E-32
  -5.9164568E-31   -9.0000000E+00
  -9.0000000E+00    0.0000000E+00
  -1.4791142E-31   -9.0000000E+00
   0.0000000E+00   -9.0000000E+00
  -9.0000000E+00    1.4791142E-31
   0.0000000E+00   -9.0000000E+00
  -9.0000000E+00    2.2186713E-31
   0.0000000E+00    0.0000000E+00
   0.0000000E+00    0.0000000E+00
   0.0000000E+00    0.0000000E+00
   0.0000000E+00    0.0000000E+00
   0.0000000E+00    0.0000000E+00
   0.0000000E+00    0.0000000E+00
   0.0000000E+00    0.0000000E+00
   0.0000000E+00    0.0000000E+00
   0.0000000E+00    0.0000000E+00
   0.0000000E+00    0.0000000E+00
   0.0000000E+00    0.0000000E+00
   0.0000000E+00    0.0000000E+00
jumpi 2 24 float 
   1.6608206E+00    4.2710519E-02
  -1.6608206E+00    4.2710519E-02
  -6.9296393E-02    3.2405532E-01
  -1.7812905E-16   -7.3961168E-01
  -1.5404561E+00    1.4572219E-15
   6.9296393E-02    3.2405532E-01
   1.5404561E+00    4.0091387E-16
  -6.9296393E-02   -3.2405532E-01
   4.1340388E-15    7.3961168E-01
   1.6608206E+00   -4.2710519E-02
   6.9296393E-02   -3.2405532E-01
  -1.6608206E+00   -4.2710519E-02
   0.0000000E+00    0.0000000E+00
   0.0000000E+00    0.0000000E+00
   0.0000000E+00    0.0000000E+00
   0.0000000E+00    0.0000000E+00
   0.0000000E+00    0.0000000E+00
   0.0000000E+00    0.0000000E+00
   0.0000000E+00    0.0000000E+00
   0.0000000E+00    0.0000000E+00
   0.0000000E+00    0.0000000E+00
   0.0000000E+00    0.0000000E+00
   0.0000000E+00    0.0000000E+00
   0.0000000E+00    0.0000000E+00
fluxj 2 24 float 
  -1.1443820E-01   -1.4637089E-03
  -1.1443820E-01    1.4637089E-03
   6.2403764E-03    2.9567064E-02
   6.9967180E-17    3.3028047E-02
  -1.2797642E-01    4.5825612E-17
  -6.2403764E-03    2.9567064E-02
  -1.2797642E-01    3.4260789E-17
  -6.2403764E-03    2.9567064E-02
  -2.5442611E-17    3.3028047E-02
  -1.1443820E-01    1.4637089E-03
   6.2403764E-03    2.9567064E-02
  -1.1443820E-01   -1.4637089E-03
   0.0000000E+00    0.0000000E+00
   0.0000000E+00    0.0000000E+00
   0.0000000E+00    0.0000000E+00
   0.0000000E+00    0.0000000E+00
   0.0000000E+00    0.0000000E+00
   0.0000000E+00    0.0000000E+00
   0.0000000E+00    0.0000000E+00
   0.0000000E+00    0.0000000E+00
   0.0000000E+00    0.0000000E+00
   0.0000000E+00    0.0000000E+00
   0.0000000E+00    0.0000000E+00
   0.0000000E+00    0.0000000E+00
nvec 2 24 float 
  -1.0000000E+00    0.0000000E+00
  -1.0000000E+00    7.4014868E-17
   0.0000000E+00   -1.0000000E+00
   7.4014868E-17   -1.0000000E+00
  -1.0000000E+00    7.4014868E-17
  -2.2204460E-16   -1.0000000E+00
  -1.0000000E+00    0.0000000E+00
   7.4014868E-17   -1.0000000E+00
   0.0000000E+00   -1.0000000E+00
  -1.0000000E+00   -1.4802974E-16
   0.0000000E+00   -1.0000000E+00
  -1.0000000E+00    7.4014868E-17
   0.0000000E+00   -1.0000000E+00
  -1.0000000E+00    0.0000000E+00
   0.0000000E+00   -1.0000000E+00
   0.0000000E+00   -1.0000000E+00
   1.0000000E+00   -2.9605947E-16
  -1.0000000E+00    0.0000000E+00
   1.0000000E+00    0.0000000E+00
  -2.9605947E-16    1.0000000E+00
  -1.0000000E+00    0.0000000E+00
   0.0000000E+00    1.0000000E+00
   1.0000000E+00    0.0000000E+00
   0.0000000E+00    1.0000000E+00
